# vtk DataFile Version 3.0
jacobian
ASCII

DATASET UNSTRUCTURED_GRID
POINTS 601 double
-0.431852 -0.216944 -0
-0.444443 -0.202344 -0
-0.436334 -0.248593 -0
-0.434084 -0.252461 -0
0.018911 -0.839706 -0
0.020427 -0.849608 -0
0.033335 -0.849229 -0
0.030429 -0.837762 -0
-0.359162 -0.183131 -0
-0.367919 -0.180316 -0
-0.38046 -0.187735 -0
-0.36266 -0.195481 -0
-0.35669 -0.303903 -0
-0.372374 -0.310894 -0
-0.349007 -0.315089 -0
-0.350089 -0.311317 -0
-0.373666 -0.286083 -0
-0.373783 -0.296936 -0
-0.362633 -0.296788 -0
-0.370629 -0.286584 -0
-0.418698 -0.227783 -0
-0.431834 -0.25633 -0
-0.427244 -0.261058 -0
-0.404448 -0.250659 -0
-0.071208 -0.471283 -0
-0.065418 -0.504386 -0
-0.057521 -0.465065 -0
-0.075508 -0.463533 -0
0.022054 -0.405699 -0
0.007246 -0.394872 -0
0.004898 -0.397853 -0
0.006701 -0.411312 -0
0.347436 -0.673761 -0
0.30059 -0.735544 -0
0.423912 -0.736732 -0
0.52638 -0.667297 -0
0.396685 -0.551085 -0
0.191169 -0.706722 -0
0.182196 -0.733816 -0
-0.01521 -0.518221 -0
0.020941 -0.50998 -0
-0.011152 -0.468076 -0
-0.02382 -0.468001 -0
0.547302 -0.398205 -0
0.448235 -0.312379 -0
0.388529 -0.384111 -0
-0.471336 -0.183798 -0
-0.46394 -0.207552 -0
-0.347277 -0.442636 -0
-0.3505 -0.456297 -0
-0.333416 -0.440758 -0
-0.333476 -0.436648 -0
-0.156832 -0.823265 -0
-0.169835 -0.821627 -0
-0.175339 -0.831694 -0
-0.162148 -0.834377 -0
-0.831082 -0.109766 -0
-0.832011 -0.100584 -0
-0.843433 -0.104866 -0
-0.842341 -0.11276 -0
-0.345945 -0.683876 -0
-0.388153 -0.632719 -0
-0.425319 -0.735915 -0
-0.394863 -0.752706 -0
-0.424359 -0.631217 -0
-0.451663 -0.719919 -0
-0.316554 -0.610631 -0
-0.270947 -0.60235 -0
-0.29652 -0.54729 -0
-0.347516 -0.516289 -0
-0.203238 -0.512411 -0
-0.174281 -0.559126 -0
-0.146057 -0.52631 -0
-0.19565 -0.509952 -0
-0.272135 -0.792072 -0
-0.285571 -0.788202 -0
-0.286632 -0.800195 -0
-0.27551 -0.804103 -0
-0.009622 0.593629 0
0.000828 0.546214 0
0.052347 0.543605 0
0.032187 0.597521 0
-0.182655 -0.818864 -0
-0.192644 -0.816774 -0
-0.196069 -0.826802 -0
-0.184557 -0.8297 -0
-0.179428 -0.806815 -0
-0.187919 -0.804948 -0
-0.109274 -0.831288 -0
-0.125492 -0.829017 -0
-0.129989 -0.839838 -0
-0.111186 -0.842674 -0
-0.094181 -0.833342 -0
-0.077817 -0.834944 -0
-0.077124 -0.823014 -0
-0.092921 -0.82129 -0
-0.034912 -0.836724 -0
-0.02046 -0.837424 -0
-0.016773 -0.826308 -0
-0.034323 -0.825758 -0
0.044502 -0.571802 -0
-0.013399 -0.578376 -0
-0.028466 -0.650512 -0
0.014367 -0.650952 -0
-0.079667 -0.466476 -0
-0.115136 -0.547246 -0
-0.122203 -0.533162 -0
-0.181392 -0.625322 -0
-0.148732 -0.634011 -0
-0.08728 -0.567603 -0
-0.111669 -0.641525 -0
-0.416041 -0.479255 -0
-0.429777 -0.489274 -0
-0.419138 -0.498439 -0
-0.411336 -0.499485 -0
-0.36712 -0.445749 -0
-0.393563 -0.464956 -0
-0.390576 -0.486543 -0
-0.369155 -0.471467 -0
-0.340665 -0.427099 -0
-0.333536 -0.432539 -0
-0.357655 -0.571196 -0
-0.351416 -0.516101 -0
-0.355317 -0.515912 -0
-0.372016 -0.527234 -0
-0.223263 -0.58613 -0
-0.229016 -0.547319 -0
-0.405154 -0.546297 -0
-0.389809 -0.537965 -0
-0.45061 -0.529527 -0
-0.507185 -0.578779 -0
-0.479481 -0.60251 -0
-0.437215 -0.540561 -0
-0.039186 -0.848953 -0
-0.023902 -0.849587 -0
-0.313852 -0.77496 -0
-0.335446 -0.7665 -0
-0.337003 -0.780316 -0
-0.318962 -0.787732 -0
-0.300068 -0.781237 -0
-0.30143 -0.794665 -0
-0.212754 -0.810263 -0
-0.227318 -0.807203 -0
-0.230119 -0.818122 -0
-0.217138 -0.82166 -0
-0.208377 -0.799911 -0
-0.223443 -0.795978 -0
-0.243764 -0.80214 -0
-0.246465 -0.813478 -0
-0.257352 -0.797095 -0
-0.262408 -0.808471 -0
-0.341963 -0.706183 -0
-0.373077 -0.76362 -0
-0.457942 -0.353238 -0
-0.441253 -0.323788 -0
-0.556328 -0.321255 -0
-0.516416 -0.342812 -0
-0.376702 -0.285581 -0
-0.384462 -0.290364 -0
-0.452856 -0.305244 -0
-0.429539 -0.314569 -0
-0.535857 -0.214362 -0
-0.486025 -0.248593 -0
-0.35458 -0.210939 -0
-0.341491 -0.197267 -0
-0.34274 -0.190019 -0
-0.401533 -0.04611 -0
-0.421384 -0.050533 -0
-0.41882 -0.069936 -0
-0.404607 -0.064487 -0
-0.826562 -0.004464 -0
-0.838083 0.002867 0
-0.838061 -0.014566 -0
-0.826331 -0.015603 -0
-0.829062 -0.122915 -0
-0.818439 -0.116006 -0
-0.819516 -0.107561 -0
-0.833422 -0.087085 -0
-0.834903 -0.074616 -0
-0.846157 -0.079175 -0
-0.844693 -0.09352 -0
-0.820614 -0.098693 -0
-0.83655 -0.045745 -0
-0.837583 -0.031071 -0
-0.849407 -0.031523 -0
-0.848648 -0.046194 -0
-0.829447 -0.135478 -0
-0.817177 -0.12454 -0
-0.825634 -0.152088 -0
-0.81502 -0.137215 -0
-0.837728 -0.143483 -0
-0.833463 -0.16645 -0
-0.821756 -0.170288 -0
-0.81651 -0.188807 -0
-0.810712 -0.160669 -0
-0.813103 -0.148862 -0
-0.650133 -0.048432 -0
-0.647316 0.014136 0
-0.718938 -0.030833 -0
-0.715916 -0.071517 -0
-0.578829 -0.142864 -0
-0.533063 -0.11843 -0
-0.537691 -0.095949 -0
-0.503018 -0.134503 -0
-0.478552 -0.131 -0
-0.462958 -0.147147 -0
-0.453407 -0.128549 -0
-0.456823 -0.126707 -0
-0.447541 -0.138902 -0
-0.449991 -0.130391 -0
-0.443842 -0.150094 -0
-0.438675 -0.164724 -0
-0.431662 -0.182359 -0
-0.468427 -0.013441 -0
-0.48875 -0.017956 -0
-0.470102 -0.050346 -0
-0.455657 -0.035508 -0
-0.482974 -0.073117 -0
-0.491808 -0.086098 -0
-0.488616 -0.08804 -0
-0.471244 -0.084814 -0
-0.497606 -0.067645 -0
-0.495001 -0.084157 -0
-0.39096 -0.058478 -0
-0.389625 -0.055822 -0
-0.454273 -0.080849 -0
-0.442672 -0.052662 -0
-0.44219 -0.036898 -0
-0.393432 -0.032058 -0
-0.38946 -0.043798 -0
-0.39041 -0.034321 -0
-0.396455 -0.029794 -0
-0.412429 -0.03293 -0
-0.388289 -0.053166 -0
-0.355029 -0.174989 -0
-0.359114 -0.174593 -0
-0.347053 -0.18203 -0
-0.350945 -0.175386 -0
-0.372833 -0.401214 -0
-0.384613 -0.416336 -0
-0.366911 -0.404588 -0
-0.370419 -0.401408 -0
-0.366812 -0.337399 -0
-0.347924 -0.318861 -0
-0.391658 -0.294933 -0
-0.399227 -0.217823 -0
-0.386754 -0.238047 -0
-0.430731 -0.381762 -0
-0.406814 -0.368106 -0
-0.375247 -0.40102 -0
-0.396273 -0.413826 -0
-0.413863 -0.435257 -0
-0.421063 -0.428203 -0
-0.350367 -0.419065 -0
-0.378469 -0.430128 -0
-0.360271 -0.410512 -0
-0.588859 -0.036729 -0
-0.591721 -0.088338 -0
-0.541486 -0.071519 -0
-0.544049 -0.048356 -0
-0.473951 0.389419 0
-0.45649 0.30505 0
-0.452701 0.305512 0
-0.418716 0.350766 0
-0.822186 -0.085587 -0
-0.823385 -0.073143 -0
-0.38407 0.087392 0
-0.401924 0.102656 0
-0.414192 0.085463 0
-0.386223 0.085609 0
-0.546295 -0.514822 -0
-0.529338 -0.551719 -0
-0.462539 -0.519178 -0
-0.472236 -0.510394 -0
-0.401023 0.518806 0
-0.485689 0.506393 0
-0.380188 0.392177 0
-0.340619 0.427024 0
-0.525278 0.234995 0
-0.454166 0.194457 0
-0.505524 0.286912 0
-0.552376 0.342128 0
-0.364586 0.144013 0
-0.435644 0.129007 0
-0.371715 0.124517 0
-0.410311 0.196736 0
-0.453246 0.242234 0
-0.402123 0.210353 0
-0.378398 0.191958 0
-0.349388 0.183733 0
-0.350735 0.187288 0
-0.352286 0.171732 0
-0.348041 0.180179 0
-0.507327 0.017738 0
-0.46852 0.007792 0
-0.381917 0.089174 0
-0.376955 0.107707 0
-0.490023 0.096779 0
-0.468561 0.111079 0
-0.485092 0.129873 0
-0.491809 0.099002 0
-0.567914 0.03252 0
-0.518118 0.060398 0
-0.538042 0.094043 0
-0.484482 0.03635 0
-0.494157 0.054519 0
-0.469094 0.047725 0
-0.4717 0.050411 0
-0.488238 0.094555 0
-0.461554 0.089667 0
-0.578302 0.234936 0
-0.582959 0.122612 0
-0.532789 0.120272 0
-0.526184 0.146485 0
-0.489715 0.176674 0
-0.518749 0.168644 0
-0.801454 0.170709 0
-0.776499 0.200506 0
-0.782326 0.332087 0
-0.807336 0.265862 0
-0.830411 0.098414 0
-0.821161 0.131135 0
-0.82754 0.194003 0
-0.838087 0.141122 0
-0.780798 0.076351 0
-0.760365 0.058669 0
-0.737876 0.233373 0
-0.801499 0.088555 0
-0.401922 -0.448051 -0
-0.531893 0.391129 0
-0.460278 0.304589 0
-0.580863 0.620543 0
-0.588626 0.612704 0
-0.57686 0.497965 0
-0.437867 0.086817 0
-0.694009 0.490615 0
-0.67023 0.264136 0
-0.619627 0.48691 0
-0.632216 0.567651 0
-0.651523 -0.105648 -0
-0.65286 -0.169287 -0
-0.15955 0.568129 0
-0.121803 0.574888 0
-0.13216 0.61666 0
-0.171008 0.610873 0
-0.197844 0.56084 0
-0.186503 0.513396 0
-0.148045 0.525794 0
-0.114672 0.534073 0
0.079588 0.600408 0
0.057455 0.665598 0
0.019791 0.653008 0
0.627822 -0.260377 -0
0.501746 -0.216216 -0
-0.20279 -0.813152 -0
-0.19634 -0.802952 -0
-0.742851 0.412843 0
-0.835221 -0.059245 -0
-0.824535 -0.057662 -0
-0.82544 -0.041229 -0
0.132428 0.602231 0
0.099267 0.537187 0
0.161651 0.521742 0
0.197697 0.59787 0
0.270154 0.591327 0
0.207571 0.731027 0
0.155476 0.705461 0
0.510957 0.449616 0
0.377438 0.580201 0
0.375908 0.396172 0
0.438936 0.325005 0
-0.589341 -0.453186 -0
-0.488461 -0.503496 -0
-0.515914 -0.436348 -0
0.62919 0.571358 0
0.481686 0.700325 0
0.496369 0.22812 0
0.600824 0.317785 0
0.656532 0.176089 0
0.53308 0.118961 0
-0.46952 -0.434467 -0
-0.442485 -0.445967 -0
-0.458394 -0.421108 -0
-0.477848 -0.399043 -0
0.816584 0.235981 0
0.743234 0.412212 0
0.546257 0.006217 0
0.679285 0.029077 0
-0.675193 -0.274271 -0
-0.05311 -0.578348 -0
-0.042092 -0.517116 -0
0.021146 -0.391299 -0
0.009595 -0.391891 -0
0.030779 -0.391911 -0
0.029041 -0.390837 -0
0.041407 -0.415453 -0
0.032517 -0.392985 -0
0.670466 -0.119594 -0
0.535743 -0.106453 -0
0.839129 -0.134752 -0
0.848333 0.053006 0
0.630737 -0.569687 -0
0.028665 -0.477347 -0
0.003507 -0.461056 -0
0.028808 -0.452789 -0
0.008951 -0.445704 -0
0.102643 -0.580426 -0
0.154668 -0.573325 -0
0.207925 -0.505257 -0
0.151263 -0.52504 -0
0.050878 -0.848346 -0
0.047683 -0.836554 -0
0.038977 -0.837081 -0
0.042062 -0.84884 -0
-0.00595 -0.838225 -0
0.006573 -0.839938 -0
0.009595 -0.826561 -0
-0.003303 -0.8266 -0
0.059008 -0.83686 -0
0.064179 -0.847422 -0
0.102014 -0.832107 -0
0.087207 -0.833417 -0
0.094647 -0.844573 -0
0.11197 -0.842449 -0
0.125184 -0.82848 -0
0.147755 -0.821993 -0
0.122698 -0.817366 -0
0.108014 -0.819541 -0
0.177849 -0.813297 -0
0.138532 -0.813709 -0
0.161998 -0.78028 -0
0.253525 -0.772488 -0
0.172568 -0.757923 -0
0.211259 -0.799077 -0
0.21951 -0.821149 -0
0.271907 -0.805315 -0
0.169194 -0.832865 -0
-0.040658 -0.466724 -0
0.055668 -0.824667 -0
0.046875 -0.825204 -0
-0.253969 -0.786575 -0
-0.270202 -0.781129 -0
-0.826008 -0.028167 -0
-0.206905 0.606742 0
-0.467805 0.027291 0
-0.466487 0.045039 0
-0.424123 -0.464467 -0
0.005237 -0.849807 -0
-0.435411 -0.075474 -0
-0.242531 -0.662535 -0
-0.217856 -0.638174 -0
0.141168 -0.838171 -0
-0.622316 -0.376031 -0
-0.10912 -0.819309 -0
-0.12472 -0.817154 -0
-0.654471 0.101232 0
-0.078945 -0.846175 -0
-0.066 -0.847329 -0
-0.063457 -0.835472 -0
-0.39887 -0.322221 -0
-0.385323 -0.352591 -0
-0.477741 0.159891 0
-0.798073 -0.234809 -0
-0.80362 -0.276901 -0
-0.79002 -0.313337 -0
-0.779467 -0.25668 -0
-0.286101 0.54052 0
-0.261283 0.479526 0
-0.22385 0.498261 0
-0.240863 0.550552 0
-0.498183 -0.373187 -0
-0.833393 0.066738 0
-0.844057 0.100267 0
-0.84796 0.058819 0
-0.836085 0.040119 0
-0.439009 -0.480872 -0
-0.686752 -0.500723 -0
-0.648865 -0.549023 -0
0.091638 -0.821508 -0
0.076996 -0.823017 -0
0.151996 -0.799142 -0
0.064428 -0.824139 -0
0.071214 -0.835249 -0
0.209446 -0.562119 -0
0.262953 -0.478965 -0
0.14489 -0.634913 -0
0.198387 -0.678517 -0
0.282899 -0.55591 -0
-0.84007 -0.128347 -0
-0.592656 0.411285 0
-0.047725 -0.825218 -0
-0.049438 -0.83677 -0
-0.824885 0.052793 0
-0.822502 0.073553 0
-0.09436 -0.844685 -0
-0.341168 -0.720298 -0
-0.351879 -0.773603 -0
-0.139815 -0.825714 -0
-0.137119 -0.815267 -0
-0.152329 -0.81244 -0
-0.420412 -0.549694 -0
-0.454573 -0.619812 -0
0.038288 -0.82565 -0
-0.167076 -0.809424 -0
-0.29787 -0.771088 -0
-0.313169 -0.765018 -0
-0.146165 -0.837327 -0
-0.051431 -0.848307 -0
-0.071673 -0.647284 -0
0.081564 -0.845967 -0
-0.4467 -0.473881 -0
-0.264848 -0.681142 -0
-0.285677 -0.696216 -0
-0.24041 -0.790838 -0
-0.285653 -0.775648 -0
-0.329804 -0.722519 -0
-0.310806 -0.711861 -0
-0.566029 -0.634112 -0
-0.524234 -0.669064 -0
-0.489179 -0.695114 -0
-0.607949 -0.593899 -0
-0.487999 -0.495332 -0
-0.499474 -0.454269 -0
-0.451869 -0.468875 -0
-0.392866 -0.19459 -0
-0.380073 -0.208839 -0
-0.719517 -0.452533 -0
-0.782393 -0.204434 -0
-0.799735 -0.194265 -0
-0.748869 -0.401866 -0
-0.499922 -0.047426 -0
-0.540684 -0.024212 -0
-0.847534 -0.062983 -0
-0.849758 -0.014814 -0
-0.748399 -0.274924 -0
-0.765806 -0.211807 -0
-0.808797 -0.209645 -0
-0.813851 -0.245153 -0
-0.807676 -0.176005 -0
-0.710491 -0.114187 -0
-0.520539 -0.016056 -0
-0.425431 -0.034918 -0
-0.4082 -0.200783 -0
-0.422671 -0.196349 -0
-0.399033 -0.29945 -0
-0.369137 -0.223911 -0
-0.503748 -0.025868 -0
-0.822807 -0.212824 -0
0.715449 -0.458923 -0
0.792037 -0.308447 -0
-0.046884 0.588927 0
-0.040052 0.544748 0
-0.358011 0.159638 0
-0.836574 0.020128 0
-0.82643 0.008094 0
-0.826242 0.020315 0
-0.736491 0.040534 0
-0.719476 0.005261 0
-0.849356 0.032764 0
-0.849859 0.009494 0
-0.825814 0.035779 0
-0.255977 0.602869 0
-0.437808 0.607024 0
-0.504512 0.615761 0
-0.702188 -0.15689 -0
-0.300332 0.456162 0
-0.340709 0.529234 0
-0.371938 0.602157 0
-0.312067 0.601052 0
-0.081552 0.540097 0
-0.087125 0.581326 0
-0.016947 0.642339 0
-0.055239 0.632327 0
-0.20851 -0.823862 -0
-0.093599 0.623953 0
0.018858 -0.826403 -0
-0.331025 -0.756227 -0
-0.771186 -0.357195 -0
-0.064256 -0.824091 -0
-0.829059 -0.186895 -0
0.232907 0.494079 0
0.30038 0.456207 0
0.26044 0.76048 0
0.027181 -0.431049 -0
0.047111 -0.435722 -0
0.008231 -0.428457 -0
0.328767 -0.436344 -0
0.058475 -0.511542 -0
0.056258 -0.484903 -0
0.052146 -0.458922 -0
0.110064 -0.535168 -0
0.058465 -0.648606 -0
0.102141 -0.643049 -0
0.349294 -0.774819 -0
-0.007301 -0.84989 -0
-0.74688 -0.219235 -0
0.105362 0.683699 0
-0.47975 -0.503336 -0
-0.571781 0.628771 0
0.028872 -0.826039 -0
0.309607 0.791499 0
CELLS 392 1960
4 0 1 2 3
4 4 5 6 7
4 8 9 10 11
4 12 13 14 15
4 16 17 18 19
4 20 21 22 23
4 24 25 26 27
4 28 29 30 31
4 32 33 34 35
4 32 36 37 38
4 39 40 41 42
4 43 44 45 36
4 46 47 2 1
4 48 49 50 51
4 52 53 54 55
4 56 57 58 59
4 60 61 62 63
4 62 61 64 65
4 66 67 68 69
4 70 71 72 73
4 74 75 76 77
4 78 79 80 81
4 82 83 84 85
4 83 82 86 87
4 88 89 90 91
4 92 93 94 95
4 96 97 98 99
4 100 101 102 103
4 104 24 105 106
4 105 71 107 108
4 109 105 108 110
4 111 112 113 114
4 115 116 117 118
4 119 48 51 120
4 121 122 123 124
4 67 125 126 68
4 127 64 61 128
4 129 130 131 132
4 97 96 133 134
4 135 136 137 138
4 75 139 140 76
4 141 142 143 144
4 142 141 145 146
4 143 142 147 148
4 149 74 77 150
4 151 60 63 152
4 153 154 155 156
4 17 16 157 158
4 159 155 154 160
4 161 155 159 162
4 11 163 164 165
4 166 167 168 169
4 170 171 172 173
4 56 174 175 176
4 177 178 179 180
4 181 57 56 176
4 182 183 184 185
4 57 177 180 58
4 174 186 187 175
4 187 186 188 189
4 186 190 191 188
4 192 193 194 195
4 196 197 198 199
4 200 161 201 202
4 161 46 203 201
4 204 205 206 207
4 206 205 208 209
4 210 46 1 211
4 46 205 204 203
4 1 0 212 211
4 213 214 215 216
4 217 218 219 220
4 217 221 222 218
4 166 169 223 224
4 217 220 225 215
4 215 226 227 216
4 228 166 229 230
4 166 228 231 232
4 166 224 233 229
4 8 234 235 9
4 234 8 236 237
4 8 11 165 236
4 238 239 240 241
4 13 242 243 14
4 13 17 158 244
4 245 20 23 246
4 154 153 247 248
4 239 238 249 250
4 251 239 250 252
4 115 48 119 253
4 239 254 255 240
4 256 257 258 259
4 260 261 262 263
4 177 264 265 178
4 266 267 268 269
4 121 66 69 122
4 270 271 272 273
4 274 275 276 277
4 278 279 280 281
4 282 279 283 284
4 279 285 286 280
4 287 288 289 290
4 285 288 287 286
4 289 288 291 292
4 293 214 213 294
4 267 266 295 296
4 284 283 267 296
4 297 298 299 300
4 301 293 302 303
4 304 305 302 293
4 304 306 307 305
4 298 297 308 309
4 310 311 312 313
4 314 279 278 315
4 311 301 303 312
4 125 71 70 126
4 316 317 318 319
4 320 321 322 323
4 317 324 325 326
4 324 317 316 327
4 328 116 115 254
4 260 329 330 261
4 275 331 332 333
4 267 283 334 268
4 335 336 337 338
4 339 340 200 257
4 341 342 343 344
4 341 345 346 347
4 342 341 347 348
4 81 349 350 351
4 352 353 44 43
4 141 354 355 145
4 317 326 356 318
4 182 357 358 359
4 360 349 361 362
4 363 364 365 366
4 367 368 369 370
4 371 270 372 373
4 368 367 374 375
4 367 370 376 377
4 378 377 376 379
4 380 381 382 383
4 377 378 384 385
4 386 387 378 379
4 161 200 340 388
4 25 109 389 390
4 29 28 391 392
4 28 393 394 391
4 28 395 396 393
4 352 397 398 353
4 387 397 399 400
4 401 36 32 35
4 40 402 403 41
4 402 404 405 403
4 406 407 408 409
4 410 411 412 413
4 414 415 416 417
4 418 411 410 419
4 420 421 422 423
4 424 425 426 427
4 426 425 428 429
4 430 431 33 432
4 433 428 434 435
4 428 425 436 434
4 25 390 437 26
4 411 418 438 439
4 276 275 260 263
4 74 149 440 441
4 442 183 182 359
4 345 341 344 443
4 304 444 445 306
4 251 381 446 328
4 100 40 39 101
4 4 415 447 5
4 448 226 215 225
4 111 116 328 446
4 125 67 449 450
4 425 424 451 436
4 251 328 254 239
4 155 161 388 452
4 89 88 453 454
4 197 196 256 301
4 310 336 455 311
4 93 456 457 458
4 25 24 105 109
4 121 124 128 61
4 83 87 355 354
4 13 12 18 17
4 459 460 242 13
4 279 314 461 283
4 462 463 464 465
4 466 467 468 469
4 380 383 470 373
4 471 472 473 474
4 446 475 112 111
4 371 476 477 270
4 387 400 384 378
4 420 478 479 421
4 433 480 429 428
4 421 479 481 482
4 483 484 408 407
4 483 485 486 487
4 174 488 190 186
4 278 281 489 310
4 96 99 490 491
4 320 492 493 321
4 88 91 494 92
4 495 496 137 136
4 497 498 499 52
4 64 127 500 501
4 111 114 117 116
4 411 439 502 412
4 154 248 460 459
4 52 499 503 53
4 82 85 54 53
4 139 504 505 135
4 92 95 453 88
4 497 506 90 89
4 458 457 507 491
4 414 417 98 97
4 491 507 133 96
4 109 110 508 389
4 105 106 72 71
4 482 509 422 421
4 130 129 272 271
4 251 252 382 381
4 381 510 475 446
4 66 511 449 67
4 60 512 511 66
4 149 150 148 147
4 147 513 440 149
4 75 514 504 139
4 74 441 514 75
4 135 138 140 139
4 495 515 516 151
4 151 152 496 495
4 130 517 518 131
4 131 518 519 501
4 270 477 520 271
4 372 521 522 373
4 380 523 510 381
4 11 10 524 525
4 452 526 476 371
4 465 527 528 462
4 388 529 526 452
4 215 530 221 217
4 256 259 531 301
4 200 202 258 257
4 387 386 398 397
4 56 59 488 174
4 336 335 356 326
4 357 532 179 178
4 316 319 322 321
4 172 533 184 183
4 182 185 532 357
4 57 181 264 177
4 534 535 527 465
4 536 537 463 462
4 462 528 538 536
4 196 199 539 339
4 46 210 208 205
4 301 531 540 293
4 166 232 541 167
4 226 448 168 167
4 245 542 543 20
4 459 544 160 154
4 13 244 544 459
4 525 545 163 11
4 245 246 545 525
4 115 253 255 254
4 293 540 546 214
4 193 547 537 536
4 43 548 549 352
4 550 551 79 78
4 424 427 478 420
4 285 552 291 288
4 298 309 334 283
4 293 294 444 304
4 283 461 299 298
4 310 313 315 278
4 553 554 555 474
4 336 556 557 455
4 474 473 558 553
4 553 558 559 171
4 474 555 560 471
4 171 170 554 553
4 320 323 472 471
4 171 559 533 172
4 471 560 492 320
4 275 333 329 260
4 20 543 212 0
4 310 489 337 336
4 345 443 561 469
4 274 562 563 275
4 339 539 564 340
4 274 277 565 566
4 161 162 47 46
4 469 468 346 345
4 566 567 562 274
4 469 561 568 466
4 566 565 467 466
4 342 348 569 570
4 81 351 571 78
4 78 571 572 550
4 92 494 456 93
4 141 144 573 354
4 570 574 343 342
4 339 257 256 196
4 4 575 416 415
4 135 505 576 136
4 534 577 529 388
4 491 490 578 458
4 81 80 361 349
4 458 578 94 93
4 501 519 65 64
4 178 265 358 357
4 188 191 579 192
4 466 568 567 566
4 363 580 581 364
4 360 362 580 363
4 368 582 365 364
4 377 385 374 367
4 53 503 86 82
4 197 301 311 455
4 155 156 470 373
4 431 430 480 433
4 525 524 542 245
4 389 508 102 101
4 583 584 395 28
4 28 31 585 583
4 125 450 107 71
4 352 549 399 397
4 36 401 548 43
4 36 45 586 487
4 487 486 37 36
4 487 586 484 483
4 40 587 588 402
4 402 588 589 404
4 583 585 405 404
4 100 590 587 40
4 7 6 413 412
4 406 591 592 407
4 418 419 509 482
4 420 423 451 424
4 433 435 593 431
4 431 593 34 33
4 97 134 594 414
4 100 103 591 406
4 321 493 327 316
4 167 541 227 226
4 452 371 373 155
4 404 589 584 583
4 279 282 552 285
4 465 464 577 534
4 39 390 389 101
4 183 442 173 172
4 455 557 198 197
4 32 38 432 33
4 115 118 49 48
4 373 522 523 380
4 570 569 551 550
4 414 594 447 415
4 388 595 535 534
4 550 572 574 570
4 66 121 61 60
4 363 366 596 360
4 39 42 437 390
4 406 409 590 100
4 273 597 372 270
4 136 576 515 495
4 52 55 506 497
4 192 579 547 193
4 536 538 194 193
4 340 564 595 388
4 214 546 530 215
4 271 520 517 130
4 501 500 132 131
4 151 516 512 60
4 354 573 84 83
4 89 454 498 497
4 142 146 513 147
4 192 195 189 188
4 0 3 21 20
4 326 325 556 336
4 563 598 331 275
4 7 599 575 4
4 412 502 599 7
4 482 481 438 418
4 407 592 485 483
4 360 596 350 349
4 364 581 369 368
4 375 600 582 368
CELL_TYPES 392
9
9
9
9
9
9
9
9
9
9
9
9
9
9
9
9
9
9
9
9
9
9
9
9
9
9
9
9
9
9
9
9
9
9
9
9
9
9
9
9
9
9
9
9
9
9
9
9
9
9
9
9
9
9
9
9
9
9
9
9
9
9
9
9
9
9
9
9
9
9
9
9
9
9
9
9
9
9
9
9
9
9
9
9
9
9
9
9
9
9
9
9
9
9
9
9
9
9
9
9
9
9
9
9
9
9
9
9
9
9
9
9
9
9
9
9
9
9
9
9
9
9
9
9
9
9
9
9
9
9
9
9
9
9
9
9
9
9
9
9
9
9
9
9
9
9
9
9
9
9
9
9
9
9
9
9
9
9
9
9
9
9
9
9
9
9
9
9
9
9
9
9
9
9
9
9
9
9
9
9
9
9
9
9
9
9
9
9
9
9
9
9
9
9
9
9
9
9
9
9
9
9
9
9
9
9
9
9
9
9
9
9
9
9
9
9
9
9
9
9
9
9
9
9
9
9
9
9
9
9
9
9
9
9
9
9
9
9
9
9
9
9
9
9
9
9
9
9
9
9
9
9
9
9
9
9
9
9
9
9
9
9
9
9
9
9
9
9
9
9
9
9
9
9
9
9
9
9
9
9
9
9
9
9
9
9
9
9
9
9
9
9
9
9
9
9
9
9
9
9
9
9
9
9
9
9
9
9
9
9
9
9
9
9
9
9
9
9
9
9
9
9
9
9
9
9
9
9
9
9
9
9
9
9
9
9
9
9
9
9
9
9
9
9
9
9
9
9
9
9
9
9
9
9
9
9
9
9
9
9
9
9
9
9
9
9
9
9
9
9
9
9
9
9
9
9
9
9
9
9
9
9
9
9
9
9
9
9
9
9
9
9
CELL_DATA 392
SCALARS fixed double
LOOKUP_TABLE default
0.34598
0.976149
0.748123
0.433258
0.676231
0.835131
-0.327252
0.717591
0.530715
0.51489
0.790298
0.676474
0.286226
0.565494
0.930499
0.966943
0.860132
0.954079
0.55617
0.590754
0.968996
0.917751
0.992461
0.984925
0.967729
0.998716
0.958547
0.888449
0.835677
0.843165
0.951595
0.546209
0.760211
0.688253
0.415507
0.906769
0.751905
0.986347
0.956869
0.961665
0.936023
0.987208
0.981448
0.997902
0.995354
0.623414
0.313402
0.656548
0.174628
0.425225
0.804162
0.861876
0.832368
0.900535
0.91428
0.99617
0.999449
0.915267
0.725729
0.709216
0.630888
0.392195
0.822132
0.230064
0.48673
0.636223
0.568984
0.472074
0.714532
0.374627
0.953548
0.667004
0.763115
0.636746
0.837765
0.77268
0.736667
0.742414
0.556701
0.623329
0.809902
0.855837
0.317488
0.842332
0.702425
0.996451
0.923144
0.586915
0.672497
0.754277
0.919577
0.929229
0.686112
0.999335
0.633795
0.469715
0.714392
0.825234
0.195322
0.70481
0.106995
0.235405
0.101746
0.3735
0.744662
0.579243
0.559032
0.777742
0.282976
0.745233
0.580699
0.654329
0.542911
0.192797
0.251621
0.705573
0.39434
0.293595
0.6726
0.615153
0.981372
0.751271
0.772466
0.81925
0.322122
0.934541
0.993506
0.997017
0.996116
0.964706
0.978833
0.950359
0.463885
0.945697
0.830402
0.872143
0.669203
0.914609
0.998229
0.871948
0.926825
0.152703
0.97784
0.950155
0.816388
0.948751
0.75274
0.574478
0.597605
0.979441
0.980093
0.656294
0.774545
0.842534
0.492058
0.978318
0.974367
0.885933
0.77874
0.323715
0.214813
0.47278
0.385697
0.403245
0.891061
0.956982
0.601791
0.988363
0.941877
0.989167
0.747705
0.911617
0.968649
0.988264
0.845705
0.984291
0.780411
0.610294
0.972875
0.635578
0.992039
0.867206
0.919497
0.98481
0.484776
0.459729
0.945673
0.775928
0.886814
0.312806
0.469098
0.985887
0.421896
0.391099
0.944826
0.941644
0.979158
0.772526
0.381962
0.773031
0.444978
0.689628
0.69736
0.276036
0.988714
0.090878
0.992871
0.233273
0.968597
0.78232
0.909354
0.999816
0.811748
0.964065
0.958797
0.936343
0.992518
0.940607
0.989615
0.955752
0.942957
0.984608
0.614902
0.788898
0.919932
0.554148
0.802529
0.899088
0.736863
0.992611
0.997755
0.898519
0.940255
0.947255
0.637704
0.251821
0.992848
0.978383
0.914136
0.323122
0.321611
0.792718
0.965639
0.604361
0.843021
0.890697
0.553017
0.766898
0.965555
0.951192
0.555096
0.934405
0.329547
0.999852
0.974011
0.998184
0.696653
0.42845
0.35404
0.935265
0.443539
0.726639
0.858176
0.978347
0.709497
0.205173
0.856481
0.969836
0.982171
0.927973
0.752968
0.400107
0.97039
0.98365
0.564269
0.45141
0.851812
0.804325
0.820099
0.409413
0.458799
0.375122
0.556555
0.726184
0.264568
0.652512
0.268367
0.869435
0.174196
0.909842
0.430893
0.258397
0.979572
0.865175
0.905492
0.916777
0.714228
0.988713
0.887746
0.931297
0.955039
0.99879
0.991119
0.994337
0.996656
0.971182
0.998232
0.9437
0.971104
0.925327
0.669487
0.98684
0.880556
0.988228
0.959497
0.992024
0.584479
0.911583
0.668559
0.752742
0.778203
0.979729
0.998568
0.978333
0.509809
0.458765
0.940136
0.965787
0.737682
0.944248
0.819157
0.979165
0.765724
0.467284
0.345684
0.411721
0.939264
0.911347
0.914138
0.378215
0.977607
0.709999
0.774777
0.636935
0.38916
0.463186
0.967022
0.809151
0.424803
0.988178
0.937602
0.891255
0.535228
0.556169
0.984318
0.975874
0.57308
0.542531
0.61025
0.506201
0.998631
0.990051
0.277073
0.99794
0.877891
0.904465
0.970018
0.265285
0.133272
0.36179
0.936792
0.47329
0.22676
0.902548
0.813881
0.951196
0.988201
0.67216
0.966779
0.986961
0.999269
0.520088
0.555946
0.755159
0.500827
0.986709
0.995885
0.883215
0.600013
0.957434
0.628106
0.867451
