# vtk DataFile Version 3.0
simplified_patch6_2D.vtk
ASCII

DATASET UNSTRUCTURED_GRID
POINTS 7 double
2.8588270 1.6149585 0.0000000
4.1805358 2.2950599 0.0000000
4.1807699 0.0006850 0.0000000
2.3272221 0.0006690 0.0000000
0.3132680 0.0001650 0.0000000
2.1086659 2.5526650 0.0000000
4.1803098 4.4937730 0.0000000
CELLS 3 15
4 4 3 0 5
4 6 5 0 1
4 0 1 2 3
CELL_TYPES 3
9
9
9
POINT_DATA 7
SCALARS fixed int
LOOKUP_TABLE default
3
0
1
0
1
0
1
