# vtk DataFile Version 3.0
simplified_patch4_2D.vtk
ASCII

DATASET UNSTRUCTURED_GRID
POINTS 51 double
2.7496490 0.6897910 0.0000000
2.7366309 0.3364200 0.0000000
2.5146539 3.7466509 0.0000000
2.5448849 3.3110640 0.0000000
2.6484540 2.1919971 0.0000000
2.7520345 1.6147460 0.0000000
2.7637219 1.3368760 0.0000000
2.4242680 4.6225672 0.0000000
2.7101806 1.0631669 0.0000000
2.6113175 3.0791170 0.0000000
2.6539219 2.7947621 0.0000000
2.5297689 3.5288579 0.0000000
2.6124140 2.5250725 0.0000000
2.7391891 1.8440933 0.0000000
2.4725220 4.1902051 0.0000000
3.4687719 0.0000450 0.0000000
2.7619450 0.0045610 0.0000000
2.0387330 0.0092030 0.0000000
2.0387790 0.3660610 0.0000000
2.0345120 0.7017750 0.0000000
2.0213349 1.1773710 0.0000000
2.0077789 1.5038420 0.0000000
1.9890240 1.8556530 0.0000000
1.9785000 2.0322051 0.0000000
1.9538620 2.3745899 0.0000000
1.9272220 2.6906359 0.0000000
1.8974980 3.0018799 0.0000000
1.8594069 3.3572230 0.0000000
1.8375040 3.5388260 0.0000000
1.8156000 3.7204299 0.0000000
1.7886710 3.9204271 0.0000000
1.7350520 4.3003631 0.0000000
1.6764550 4.6772070 0.0000000
1.6445481 4.8741131 0.0000000
2.3209009 4.9889078 0.0000000
3.0544429 5.1134090 0.0000000
3.1474979 4.5231071 0.0000000
3.2146549 4.0438099 0.0000000
3.2790380 3.5191021 0.0000000
3.3097830 3.2485781 0.0000000
3.3325310 3.0128000 0.0000000
3.3552780 2.7770231 0.0000000
3.3725181 2.5632949 0.0000000
3.3897569 2.3495679 0.0000000
3.4151101 1.9725970 0.0000000
3.4358230 1.5912070 0.0000000
3.4441819 1.3858470 0.0000000
3.4525411 1.1804880 0.0000000
3.4583290 0.9637370 0.0000000
3.4641161 0.7469870 0.0000000
3.4687719 0.3560470 0.0000000
CELLS 32 160
4 15 50 1 16
4 48 47 6 8
4 47 46 5 6
4 45 44 4 13
4 43 42 10 12
4 41 40 3 9
4 39 38 2 11
4 37 36 7 14
4 35 34 7 36
4 17 16 1 18
4 31 30 2 14
4 29 28 3 11
4 25 24 4 12
4 23 22 5 13
4 21 20 8 6
4 0 19 18 1
4 0 19 20 8
4 6 21 22 5
4 13 23 24 4
4 12 25 26 10
4 10 26 27 9
4 9 27 28 3
4 11 29 30 2
4 14 31 32 7
4 32 33 34 7
4 14 37 38 2
4 11 39 40 3
4 9 41 42 10
4 12 43 44 4
4 13 45 46 5
4 8 48 49 0
4 0 49 50 1
CELL_TYPES 32
9
9
9
9
9
9
9
9
9
9
9
9
9
9
9
9
9
9
9
9
9
9
9
9
9
9
9
9
9
9
9
9
POINT_DATA 51
SCALARS fixed int
LOOKUP_TABLE default
0
0
0
0
0
0
0
0
0
0
0
0
0
0
0
1
0
1
0
0
0
0
0
0
0
0
0
0
0
0
0
0
0
1
0
1
0
0
0
0
0
0
0
0
0
0
0
0
0
0
0
