# vtk DataFile Version 3.0
simplified_patch2_2D.vtk
ASCII

DATASET UNSTRUCTURED_GRID
POINTS 51 double
4.9934449 3.4931560 0.0000000
8.2129064 8.3538141 0.0000000
8.5656531 10.2703688 0.0000000
8.4083108 9.4028983 0.0000000
8.5777244 10.6810842 0.0000000
7.3543204 6.3133959 0.0000000
8.3457160 8.8530888 0.0000000
8.4990215 9.8531017 0.0000000
6.8595545 5.5258874 0.0000000
4.7654940 8.1418932 0.0000000
8.0145586 7.8168090 0.0000000
7.7186599 7.1224632 0.0000000
6.2602520 4.6387048 0.0000000
8.0259466 0.5295120 0.0000000
5.4641099 0.4199450 0.0000000
2.9283769 0.0003810 0.0000000
2.4396350 2.4546449 0.0000000
1.8056720 5.0208511 0.0000000
3.0903120 5.6257091 0.0000000
4.0836768 6.6719022 0.0000000
4.6860232 8.2991791 0.0000000
4.5521011 10.0336084 0.0000000
4.9888029 10.1661606 0.0000000
5.3320942 10.2703600 0.0000000
4.6172552 5.9916530 0.0000000
5.0701098 6.6184258 0.0000000
5.5654631 7.1817031 0.0000000
6.1453018 7.7397318 0.0000000
6.6882768 8.3300819 0.0000000
7.0802360 8.8083792 0.0000000
7.3395581 9.1744785 0.0000000
7.5240712 9.4735603 0.0000000
7.6625409 9.7320461 0.0000000
7.8174868 10.1206856 0.0000000
7.9145808 10.4848948 0.0000000
7.9419918 10.7581825 0.0000000
7.9385800 10.9950457 0.0000000
8.5618143 11.0451393 0.0000000
9.2405748 11.0729733 0.0000000
9.2556572 10.6259203 0.0000000
9.2663498 10.1441593 0.0000000
9.2658300 9.5707684 0.0000000
9.2501478 9.0608931 0.0000000
9.1937017 8.2773819 0.0000000
9.1155949 7.6361642 0.0000000
8.9807701 6.8534989 0.0000000
8.7736254 5.9371982 0.0000000
8.5173187 4.9464178 0.0000000
8.2845392 3.9599900 0.0000000
8.1200962 2.9281840 0.0000000
8.0393429 1.7656120 0.0000000
CELLS 31 155
4 13 50 0 14
4 15 14 0 16
4 48 47 5 8
4 45 44 1 10
4 43 42 3 6
4 41 40 2 7
4 38 37 4 39
4 24 0 12 25
4 26 8 5 27
4 29 10 1 30
4 31 6 3 32
4 33 7 2 34
4 21 20 9 22
4 0 16 17 18
4 9 20 19 24
4 9 22 23 24
4 8 26 25 12
4 11 28 27 5
4 10 29 28 11
4 6 31 30 1
4 7 33 32 3
4 4 35 34 2
4 4 35 36 37
4 4 39 40 2
4 7 41 42 3
4 6 43 44 1
4 10 45 46 11
4 11 46 47 5
4 8 48 49 12
4 0 50 49 12
4 0 24 19 18
CELL_TYPES 31
9
9
9
9
9
9
9
9
9
9
9
9
9
9
9
9
9
9
9
9
9
9
9
9
9
9
9
9
9
9
9
POINT_DATA 51
SCALARS fixed int
LOOKUP_TABLE default
6
0
0
0
0
0
0
0
0
3
0
0
0
1
0
1
0
1
0
0
0
1
0
1
4
0
0
0
0
0
0
0
0
0
0
0
1
0
1
0
0
0
0
0
0
0
0
0
0
0
0
