# vtk DataFile Version 3.0
simplified_patch1_2D.vtk
ASCII

DATASET UNSTRUCTURED_GRID
POINTS 60 double
4.4087569 2.4204780 0.0000000
2.2102729 2.4637076 0.0000000
3.6738960 2.4397631 0.0000000
3.1812990 2.4629190 0.0000000
1.8411545 2.4627960 0.0000000
1.4906785 2.4455151 0.0000000
2.5632651 2.4963989 0.0000000
2.8741851 2.4588070 0.0000000
0.5294815 2.4419740 0.0000000
4.0278492 2.4513750 0.0000000
3.4208749 2.4727304 0.0000000
3.0277450 2.4608600 0.0000000
2.0309166 2.4437950 0.0000000
1.6964860 2.4304600 0.0000000
1.2589360 2.4623051 0.0000000
0.9090895 2.4676955 0.0000000
2.4052465 2.4745975 0.0000000
2.7187271 2.4775980 0.0000000
4.9136019 1.6700521 0.0000000
4.2997580 1.6699790 0.0000000
3.8391211 1.6700720 0.0000000
3.5203600 1.6701421 0.0000000
3.2172041 1.6702130 0.0000000
2.9263000 1.6703380 0.0000000
2.7700510 1.6704280 0.0000000
2.5933030 1.6703870 0.0000000
2.4165540 1.6703590 0.0000000
2.2569251 1.6704280 0.0000000
2.0972970 1.6705010 0.0000000
1.9442270 1.6705350 0.0000000
1.7911570 1.6705689 0.0000000
1.5490400 1.6704900 0.0000000
1.4234411 1.6705350 0.0000000
1.2978410 1.6705760 0.0000000
1.1331810 1.6706049 0.0000000
0.8122070 1.6707010 0.0000000
0.4758910 1.6708750 0.0000000
0.0000240 1.6710550 0.0000000
0.0002880 2.4005339 0.0000000
0.0004850 3.2441981 0.0000000
0.6746840 3.2439809 0.0000000
1.1651000 3.2438869 0.0000000
1.5054420 3.2437620 0.0000000
1.8202280 3.2436860 0.0000000
1.9780281 3.2436969 0.0000000
2.1317110 3.2436709 0.0000000
2.2853930 3.2436430 0.0000000
2.4583850 3.2435961 0.0000000
2.6313770 3.2435429 0.0000000
2.7943411 3.2435279 0.0000000
2.9573040 3.2435119 0.0000000
3.0999789 3.2434180 0.0000000
3.2426541 3.2433209 0.0000000
3.4115450 3.2433159 0.0000000
3.5804369 3.2433059 0.0000000
3.7541471 3.2432840 0.0000000
4.0869179 3.2432239 0.0000000
4.4237938 3.2431929 0.0000000
4.9138708 3.2429991 0.0000000
4.9136519 2.4449351 0.0000000
CELLS 38 190
4 18 59 0 19
4 58 57 0 59
4 20 9 2 21
4 22 10 3 23
4 24 11 7 25
4 26 17 6 27
4 28 16 1 29
4 30 12 4 31
4 32 13 5 33
4 34 14 15 35
4 37 36 8 38
4 56 55 2 9
4 54 53 3 10
4 52 51 7 11
4 50 49 6 17
4 48 47 1 16
4 46 45 4 12
4 44 43 5 13
4 42 41 15 14
4 39 38 8 40
4 9 20 19 0
4 10 22 21 2
4 11 24 23 3
4 17 26 25 7
4 16 28 27 6
4 12 30 29 1
4 13 32 31 4
4 14 34 33 5
4 8 36 35 15
4 8 40 41 15
4 14 42 43 5
4 13 44 45 4
4 12 46 47 1
4 16 48 49 6
4 17 50 51 7
4 11 52 53 3
4 10 54 55 2
4 9 56 57 0
CELL_TYPES 38
9
9
9
9
9
9
9
9
9
9
9
9
9
9
9
9
9
9
9
9
9
9
9
9
9
9
9
9
9
9
9
9
9
9
9
9
9
9
POINT_DATA 60
SCALARS fixed int
LOOKUP_TABLE default
0
0
0
0
0
0
0
0
0
0
0
0
0
0
0
0
0
0
1
0
0
0
0
0
0
0
0
0
0
0
0
0
0
0
0
0
0
1
0
1
0
0
0
0
0
0
0
0
0
0
0
0
0
0
0
0
0
0
1
0
