# vtk DataFile Version 3.0
simplified_patch0_2D.vtk
ASCII

DATASET UNSTRUCTURED_GRID
POINTS 60 double
2.7925500 3.3273405 0.0000000
3.2252184 3.4581681 0.0000000
0.6780590 1.1751690 0.0000000
1.2791800 2.2371200 0.0000000
1.6274710 2.6435931 0.0000000
0.8344185 1.4930172 0.0000000
3.7346449 3.5558550 0.0000000
0.5266977 0.4094540 0.0000000
0.5691955 0.7903505 0.0000000
2.0683345 2.9629939 0.0000000
3.4651286 3.5498931 0.0000000
2.6303210 3.2371809 0.0000000
2.3568482 3.1149068 0.0000000
1.1280115 2.0217315 0.0000000
2.9905324 3.3933490 0.0000000
1.4436115 2.4146886 0.0000000
1.8261710 2.8101318 0.0000000
0.9343410 1.8054740 0.0000000
4.0595341 3.5419860 0.0000000
4.0595341 3.1302960 0.0000000
3.7476780 3.1143961 0.0000000
3.5720830 3.0863791 0.0000000
3.3964870 3.0583620 0.0000000
3.0893710 2.9754131 0.0000000
2.9273541 2.9127591 0.0000000
2.7653370 2.8501060 0.0000000
2.4660110 2.6935771 0.0000000
2.2272091 2.5373790 0.0000000
1.9734980 2.3327839 0.0000000
1.8511500 2.2104840 0.0000000
1.7288020 2.0881841 0.0000000
1.5351270 1.8495140 0.0000000
1.4483210 1.7177351 0.0000000
1.3615150 1.5859560 0.0000000
1.2159820 1.3077530 0.0000000
1.0832170 0.9659140 0.0000000
1.0028830 0.6695500 0.0000000
0.9441790 0.3014520 0.0000000
0.9295870 0.0003560 0.0000000
0.4143040 0.0003550 0.0000000
0.0000480 0.0003550 0.0000000
0.0326020 0.5048310 0.0000000
0.1217500 0.9719500 0.0000000
0.2537530 1.4097090 0.0000000
0.3978970 1.7487940 0.0000000
0.5381050 2.0194020 0.0000000
0.7612850 2.3608439 0.0000000
0.9478660 2.6015711 0.0000000
1.1494210 2.8258679 0.0000000
1.3635920 3.0308740 0.0000000
1.6913500 3.2970619 0.0000000
1.9945270 3.4920330 0.0000000
2.2492051 3.6294730 0.0000000
2.5387831 3.7601800 0.0000000
2.6861451 3.8195410 0.0000000
2.8167329 3.8616970 0.0000000
3.0740640 3.9353280 0.0000000
3.3638320 3.9953570 0.0000000
3.6759210 4.0381050 0.0000000
4.0595341 4.0598450 0.0000000
CELLS 38 190
4 59 58 6 18
4 21 10 1 22
4 23 14 0 24
4 25 11 12 26
4 28 16 4 29
4 30 15 3 31
4 32 13 17 33
4 36 8 7 37
4 38 37 7 39
4 57 56 1 10
4 55 54 0 14
4 53 52 12 11
4 50 49 4 16
4 48 47 3 15
4 44 43 2 5
4 42 41 7 8
4 40 39 7 41
4 6 18 19 20
4 10 21 20 6
4 14 23 22 1
4 11 25 24 0
4 9 27 26 12
4 16 28 27 9
4 15 30 29 4
4 13 32 31 3
4 5 34 33 17
4 2 35 34 5
4 8 36 35 2
4 8 42 43 2
4 5 44 45 17
4 17 45 46 13
4 13 46 47 3
4 15 48 49 4
4 16 50 51 9
4 9 51 52 12
4 11 53 54 0
4 14 55 56 1
4 10 57 58 6
CELL_TYPES 38
9
9
9
9
9
9
9
9
9
9
9
9
9
9
9
9
9
9
9
9
9
9
9
9
9
9
9
9
9
9
9
9
9
9
9
9
9
9
POINT_DATA 60
SCALARS fixed int
LOOKUP_TABLE default
0
0
0
0
0
0
0
0
0
0
0
0
0
0
0
0
0
0
0
1
0
0
0
0
0
0
0
0
0
0
0
0
0
0
0
0
0
0
1
0
1
0
0
0
0
0
0
0
0
0
0
0
0
0
0
0
0
0
0
1
