# vtk DataFile Version 3.0
simplified_patch5_2D.vtk
ASCII

DATASET UNSTRUCTURED_GRID
POINTS 66 double
4.6504059 5.8579158 0.0000000
5.2273998 8.4650874 0.0000000
5.9563651 8.8285970 0.0000000
8.4527250 5.3019814 0.0000000
7.9793104 5.3075951 0.0000000
7.5962801 5.2779999 0.0000000
1.4512475 4.2281530 0.0000000
9.1956696 5.3231070 0.0000000
8.9696865 5.3155650 0.0000000
5.3284002 7.9620080 0.0000000
8.7039924 5.3011225 0.0000000
5.5472837 8.9842367 0.0000000
8.2326958 5.2935159 0.0000000
7.8002667 5.3099716 0.0000000
7.3710161 5.2650064 0.0000000
7.0377669 5.2212036 0.0000000
6.7092090 5.1966679 0.0000000
6.3238831 5.0580201 0.0000000
5.7263024 5.1045875 0.0000000
2.7696335 4.7212162 0.0000000
9.4179802 4.6054072 0.0000000
9.0388746 4.5900159 0.0000000
8.8190241 4.5618992 0.0000000
8.5991726 4.5337820 0.0000000
8.3971682 4.4896798 0.0000000
8.1951628 4.4455791 0.0000000
8.0103779 4.3884568 0.0000000
7.8255930 4.3313351 0.0000000
7.5099859 4.2068739 0.0000000
7.1167388 4.0107179 0.0000000
6.6903338 3.7442040 0.0000000
6.2639880 3.4103470 0.0000000
5.7316279 2.8616469 0.0000000
5.0427370 2.0700760 0.0000000
4.0569272 1.2215120 0.0000000
2.9298120 0.5791410 0.0000000
1.5271040 0.1314150 0.0000000
0.2123770 0.0005850 0.0000000
0.2123740 3.9618421 0.0000000
0.2123740 8.0814352 0.0000000
1.2686070 8.1036119 0.0000000
2.1756420 8.1563921 0.0000000
3.0087631 8.2327414 0.0000000
3.8325601 8.3357983 0.0000000
4.7885318 8.4881449 0.0000000
5.4712310 9.6297255 0.0000000
6.1546092 9.6297255 0.0000000
6.8494902 9.3309593 0.0000000
6.8848538 8.7745047 0.0000000
6.8848548 8.2389231 0.0000000
6.8976631 7.7891059 0.0000000
6.9645672 7.3980808 0.0000000
7.0733142 7.1218629 0.0000000
7.2278399 6.8537970 0.0000000
7.3893390 6.6535149 0.0000000
7.5550141 6.4926362 0.0000000
7.7325010 6.3568249 0.0000000
7.8709612 6.2737269 0.0000000
8.0273418 6.1970029 0.0000000
8.2389469 6.1174378 0.0000000
8.4909954 6.0614958 0.0000000
8.7521734 6.0374079 0.0000000
9.0718241 6.0354748 0.0000000
9.2449017 6.0354748 0.0000000
9.4179802 6.0354748 0.0000000
9.4179802 5.3122482 0.0000000
CELLS 42 210
4 20 65 7 21
4 23 10 3 24
4 25 12 4 26
4 27 13 5 28
4 29 14 15 30
4 31 16 17 32
4 33 18 0 34
4 35 19 6 36
4 37 36 6 38
4 64 63 7 65
4 61 60 3 10
4 59 58 4 12
4 57 56 5 13
4 55 54 15 14
4 53 52 17 16
4 51 50 0 18
4 49 48 2 9
4 39 38 6 40
4 41 19 0 42
4 42 0 9 43
4 8 22 21 7
4 10 23 22 8
4 12 25 24 3
4 13 27 26 4
4 14 29 28 5
4 16 31 30 15
4 18 33 32 17
4 19 35 34 0
4 19 41 40 6
4 1 44 45 11
4 11 45 46 2
4 9 49 50 0
4 18 51 52 17
4 16 53 54 15
4 14 55 56 5
4 13 57 58 4
4 12 59 60 3
4 10 61 62 8
4 8 62 63 7
4 48 2 46 47
4 44 43 9 1
4 9 2 11 1
CELL_TYPES 42
9
9
9
9
9
9
9
9
9
9
9
9
9
9
9
9
9
9
9
9
9
9
9
9
9
9
9
9
9
9
9
9
9
9
9
9
9
9
9
9
9
9
POINT_DATA 66
SCALARS fixed int
LOOKUP_TABLE default
6
3
0
0
0
0
0
0
0
5
0
3
0
0
0
0
0
0
0
0
1
0
0
0
0
0
0
0
0
0
0
0
0
0
0
0
0
1
0
1
0
0
0
0
0
0
0
1
0
0
0
0
0
0
0
0
0
0
0
0
0
0
0
0
1
0
