# vtk DataFile Version 3.0
simplified_patch3_2D.vtk
ASCII

DATASET UNSTRUCTURED_GRID
POINTS 75 double
6.1362152 3.2341051 0.0000000
5.6495800 3.1860610 0.0000000
4.6587425 3.1677769 0.0000000
3.7159425 3.1559275 0.0000000
5.1589481 3.1698230 0.0000000
4.9027529 3.1783290 0.0000000
4.4398632 3.1679060 0.0000000
2.8835925 3.1874909 0.0000000
2.3080579 3.1874845 0.0000000
1.7741179 3.1820240 0.0000000
1.1780975 3.1821355 0.0000000
0.5441950 3.1860185 0.0000000
5.8776031 3.1948240 0.0000000
3.4478411 3.1619519 0.0000000
4.1839888 3.1410225 0.0000000
3.1686741 3.1805991 0.0000000
2.5903234 3.1816164 0.0000000
2.0576995 3.1944394 0.0000000
1.4595244 3.1739920 0.0000000
0.8765135 3.1841099 0.0000000
0.2831980 3.1860020 0.0000000
3.9518194 3.1723525 0.0000000
5.4089618 3.1750641 0.0000000
6.3742409 3.1989160 0.0000000
6.3742280 2.8914399 0.0000000
6.1395569 2.8915761 0.0000000
5.8400822 2.8914840 0.0000000
5.6745749 2.8914759 0.0000000
5.3784761 2.8914530 0.0000000
5.1106591 2.8914731 0.0000000
4.8145671 2.8914919 0.0000000
4.4965901 2.8914721 0.0000000
4.3374829 2.8914709 0.0000000
4.2070360 2.8914590 0.0000000
3.9615040 2.8914680 0.0000000
3.7093940 2.8915081 0.0000000
3.4239850 2.8915150 0.0000000
3.1272781 2.8915350 0.0000000
2.8255429 2.8915350 0.0000000
2.5207479 2.8915491 0.0000000
2.2409980 2.8915701 0.0000000
2.0107319 2.8916039 0.0000000
1.7067150 2.8917100 0.0000000
1.4391980 2.8917530 0.0000000
1.1342289 2.8917091 0.0000000
0.8290830 2.8917501 0.0000000
0.5058050 2.8918200 0.0000000
0.2390340 2.8918030 0.0000000
0.0000560 2.8918140 0.0000000
0.0000820 3.1820290 0.0000000
0.0000760 3.4829290 0.0000000
0.3421940 3.4829249 0.0000000
0.6409270 3.4828391 0.0000000
0.9488110 3.4828219 0.0000000
1.2242850 3.4828551 0.0000000
1.4938980 3.4828479 0.0000000
1.7532430 3.4827831 0.0000000
2.0895569 3.4826701 0.0000000
2.3301370 3.4826260 0.0000000
2.6357040 3.4825759 0.0000000
2.9383140 3.4826059 0.0000000
3.2077420 3.4530611 0.0000000
3.4968691 3.4028330 0.0000000
3.7606931 3.3888230 0.0000000
4.0164309 3.3979900 0.0000000
4.2141600 3.4102249 0.0000000
4.4623461 3.4247310 0.0000000
4.7808962 3.4414489 0.0000000
4.9466162 3.4488220 0.0000000
5.2337179 3.4606690 0.0000000
5.5016770 3.4694109 0.0000000
5.6482530 3.4736781 0.0000000
5.9279900 3.4790990 0.0000000
6.1723952 3.4819100 0.0000000
6.3742638 3.4825549 0.0000000
CELLS 48 240
4 74 73 0 23
4 24 23 0 25
4 70 69 4 22
4 50 49 20 51
4 48 47 20 49
4 64 21 14 65
4 27 1 22 28
4 12 26 25 0
4 12 26 27 1
4 22 28 29 4
4 5 30 29 4
4 2 31 30 5
4 6 32 31 2
4 14 33 32 6
4 14 33 34 21
4 3 35 34 21
4 13 36 35 3
4 15 37 36 13
4 7 38 37 15
4 16 39 38 7
4 8 40 39 16
4 17 41 40 8
4 9 42 41 17
4 18 43 42 9
4 10 44 43 18
4 19 45 44 10
4 11 46 45 19
4 20 47 46 11
4 20 51 52 11
4 11 52 53 19
4 19 53 54 10
4 10 54 55 18
4 18 55 56 9
4 9 56 57 17
4 17 57 58 8
4 8 58 59 16
4 16 59 60 7
4 7 60 61 15
4 15 61 62 13
4 13 62 63 3
4 3 63 64 21
4 14 65 66 6
4 6 66 67 2
4 2 67 68 5
4 5 68 69 4
4 22 70 71 1
4 12 72 71 1
4 12 72 73 0
CELL_TYPES 48
9
9
9
9
9
9
9
9
9
9
9
9
9
9
9
9
9
9
9
9
9
9
9
9
9
9
9
9
9
9
9
9
9
9
9
9
9
9
9
9
9
9
9
9
9
9
9
9
POINT_DATA 75
SCALARS fixed int
LOOKUP_TABLE default
0
0
0
0
0
0
0
0
0
0
0
0
0
0
0
0
0
0
0
0
0
0
0
0
1
0
0
0
0
0
0
0
0
0
0
0
0
0
0
0
0
0
0
0
0
0
0
0
1
0
1
0
0
0
0
0
0
0
0
0
0
0
0
0
0
0
0
0
0
0
0
0
0
0
1
